# vtk DataFile Version 3.98
Delaunay_vtk
ASCII
DATASET UNSTRUCTURED_GRID
POINTS 7 float
 -1.33333333 0.66666667 0.00000000
 -1.66666667 1.33333333 0.00000000
 -1.33333333 1.66666667 0.00000000
 -0.66666667 1.33333333 0.00000000
 -0.33333333 0.66666667 0.00000000
 -0.66666667 0.33333333 0.00000000
 -1.00000000 1.00000000 0.00000000
CELLS 6 24
3 0 1 6
3 1 2 6
3 2 3 6
3 3 4 6
3 4 5 6
3 5 0 6
CELL_TYPES 6 
5
5
5
5
5
5
CELL_DATA 6
 SCALARS Id float 1
LOOKUP_TABLE default
3 
3 
3 
3 
3 
3 
SCALARS AreaChange float 1
LOOKUP_TABLE default
0.000000 
0.000000 
0.000000 
0.000000 
0.000000 
0.000000 
