# vtk DataFile Version 3.98
Delaunay_vtk
ASCII
DATASET UNSTRUCTURED_GRID
POINTS 63 float
 -1.666667 -0.666667 0.000000
 -1.333333 -1.333333 0.000000
 -0.666667 -1.666667 0.000000
 -0.333333 -1.333333 0.000000
 -0.666667 -0.666667 0.000000
 -1.333333 -0.333333 0.000000
 -1.000000 -1.000000 0.000000
 -1.333333 0.666667 0.000000
 -1.666667 0.333333 0.000000
 -1.333333 -0.333333 0.000000
 -0.666667 -0.666667 0.000000
 -0.333333 -0.333333 0.000000
 -0.666667 0.333333 0.000000
 -1.000000 0.000000 0.000000
 -1.333333 0.666667 0.000000
 -1.666667 1.333333 0.000000
 -1.333333 1.666667 0.000000
 -0.666667 1.333333 0.000000
 -0.333333 0.666667 0.000000
 -0.666667 0.333333 0.000000
 -1.000000 1.000000 0.000000
 -0.333333 -0.333333 0.000000
 -0.666667 -0.666667 0.000000
 -0.333333 -1.333333 0.000000
 0.333333 -1.666667 0.000000
 0.666667 -1.333333 0.000000
 0.333333 -0.666667 0.000000
 0.000000 -1.000000 0.000000
 -0.333333 -0.333333 0.000000
 -0.666667 0.333333 0.000000
 -0.333333 0.666667 0.000000
 0.333333 0.333333 0.000000
 0.666667 -0.333333 0.000000
 0.333333 -0.666667 0.000000
 0.000000 0.000000 0.000000
 0.666667 0.666667 0.000000
 0.333333 1.333333 0.000000
 -0.333333 1.666667 0.000000
 -0.666667 1.333333 0.000000
 -0.333333 0.666667 0.000000
 0.333333 0.333333 0.000000
 0.000000 1.000000 0.000000
 1.333333 -0.666667 0.000000
 1.666667 -1.333333 0.000000
 1.333333 -1.666667 0.000000
 0.666667 -1.333333 0.000000
 0.333333 -0.666667 0.000000
 0.666667 -0.333333 0.000000
 1.000000 -1.000000 0.000000
 1.333333 -0.666667 0.000000
 0.666667 -0.333333 0.000000
 0.333333 0.333333 0.000000
 0.666667 0.666667 0.000000
 1.333333 0.333333 0.000000
 1.666667 -0.333333 0.000000
 1.000000 0.000000 0.000000
 1.333333 0.333333 0.000000
 0.666667 0.666667 0.000000
 0.333333 1.333333 0.000000
 0.666667 1.666667 0.000000
 1.333333 1.333333 0.000000
 1.666667 0.666667 0.000000
 1.000000 1.000000 0.000000
CELLS 54 216
3 0 1 6
3 1 2 6
3 2 3 6
3 3 4 6
3 4 5 6
3 5 0 6
3 7 8 13
3 8 9 13
3 9 10 13
3 10 11 13
3 11 12 13
3 12 7 13
3 14 15 20
3 15 16 20
3 16 17 20
3 17 18 20
3 18 19 20
3 19 14 20
3 21 22 27
3 22 23 27
3 23 24 27
3 24 25 27
3 25 26 27
3 26 21 27
3 28 29 34
3 29 30 34
3 30 31 34
3 31 32 34
3 32 33 34
3 33 28 34
3 35 36 41
3 36 37 41
3 37 38 41
3 38 39 41
3 39 40 41
3 40 35 41
3 42 43 48
3 43 44 48
3 44 45 48
3 45 46 48
3 46 47 48
3 47 42 48
3 49 50 55
3 50 51 55
3 51 52 55
3 52 53 55
3 53 54 55
3 54 49 55
3 56 57 62
3 57 58 62
3 58 59 62
3 59 60 62
3 60 61 62
3 61 56 62
CELL_TYPES 54 
5
5
5
5
5
5
5
5
5
5
5
5
5
5
5
5
5
5
5
5
5
5
5
5
5
5
5
5
5
5
5
5
5
5
5
5
5
5
5
5
5
5
5
5
5
5
5
5
5
5
5
5
5
5
CELL_DATA 54
SCALARS Id float 1
LOOKUP_TABLE default
1 
1 
1 
1 
1 
1 
2 
2 
2 
2 
2 
2 
3 
3 
3 
3 
3 
3 
4 
4 
4 
4 
4 
4 
5 
5 
5 
5 
5 
5 
6 
6 
6 
6 
6 
6 
7 
7 
7 
7 
7 
7 
8 
8 
8 
8 
8 
8 
9 
9 
9 
9 
9 
9 
SCALARS AreaChange float 1
LOOKUP_TABLE default
0.000000 
0.000000 
0.000000 
0.000000 
0.000000 
0.000000 
0.000000 
0.000000 
0.000000 
0.000000 
0.000000 
0.000000 
0.000000 
0.000000 
0.000000 
0.000000 
0.000000 
0.000000 
0.000000 
0.000000 
0.000000 
0.000000 
0.000000 
0.000000 
0.000000 
0.000000 
0.000000 
0.000000 
0.000000 
0.000000 
0.000000 
0.000000 
0.000000 
0.000000 
0.000000 
0.000000 
0.000000 
0.000000 
0.000000 
0.000000 
0.000000 
0.000000 
0.000000 
0.000000 
0.000000 
0.000000 
0.000000 
0.000000 
0.000000 
0.000000 
0.000000 
0.000000 
0.000000 
0.000000 
